Title: * simple resistive attenuator (voltage divider)
Date: Wed Nov 26 18:17:29  2025
Plotname: Transient Analysis
Flags: real
No. Variables: 4
No. Points: 40008
Variables:
	0	time	time
	1	v(in)	voltage
	2	v(out)	voltage
	3	i(vin)	current
Values:
 0	0.000000000000000e+00
	0.000000000000000e+00
	0.000000000000000e+00
	0.000000000000000e+00

 1	1.000000000000000e-08
	3.141592653584625e-04
	1.570796326792313e-04
	-1.570796326792312e-08

 2	2.000000000000000e-08
	6.283185307138243e-04
	3.141592653569122e-04
	-3.141592653569122e-08

 3	4.000000000000000e-08
	1.256637061402844e-03
	6.283185307014219e-04
	-6.283185307014218e-08

 4	8.000000000000000e-08
	2.513274122607248e-03
	1.256637061303624e-03
	-1.256637061303624e-07

 5	1.600000000000000e-07
	5.026548243626973e-03
	2.513274121813487e-03
	-2.513274121813487e-07

 6	3.200000000000000e-07
	1.005309647455378e-02
	5.026548237276889e-03
	-5.026548237276889e-07

 7	6.400000000000000e-07
	2.010619284750619e-02
	1.005309642375309e-02
	-1.005309642375309e-06

 8	1.280000000000000e-06
	4.021238488220144e-02
	2.010619244110072e-02
	-2.010619244110072e-06

 9	2.280000000000000e-06
	7.162830637689235e-02
	3.581415318844618e-02
	-3.581415318844618e-06

 10	3.280000000000000e-06
	1.030442208021528e-01
	5.152211040107642e-02
	-5.152211040107642e-06

 11	4.280000000000000e-06
	1.344601250573565e-01
	6.723006252867823e-02
	-6.723006252867823e-06

 12	5.279999999999999e-06
	1.658760160418777e-01
	8.293800802093887e-02
	-8.293800802093887e-06

 13	6.279999999999999e-06
	1.972918906550926e-01
	9.864594532754631e-02
	-9.864594532754631e-06

 14	7.279999999999999e-06
	2.287077457963785e-01
	1.143538728981893e-01
	-1.143538728981892e-05

 15	8.279999999999999e-06
	2.601235783651148e-01
	1.300617891825575e-01
	-1.300617891825574e-05

 16	9.279999999999999e-06
	2.915393852606832e-01
	1.457696926303416e-01
	-1.457696926303416e-05

 17	1.028000000000000e-05
	3.229551633824679e-01
	1.614775816912340e-01
	-1.614775816912340e-05

 18	1.128000000000000e-05
	3.543709096298559e-01
	1.771854548149280e-01
	-1.771854548149280e-05

 19	1.228000000000000e-05
	3.857866209022372e-01
	1.928933104511186e-01
	-1.928933104511186e-05

 20	1.328000000000000e-05
	4.172022940990055e-01
	2.086011470495028e-01
	-2.086011470495028e-05

 21	1.428000000000000e-05
	4.486179261195581e-01
	2.243089630597790e-01
	-2.243089630597790e-05

 22	1.528000000000000e-05
	4.800335138632966e-01
	2.400167569316483e-01
	-2.400167569316483e-05

 23	1.628000000000000e-05
	5.114490542296266e-01
	2.557245271148133e-01
	-2.557245271148133e-05

 24	1.728000000000000e-05
	5.428645441179587e-01
	2.714322720589794e-01
	-2.714322720589794e-05

 25	1.828000000000000e-05
	5.742799804277083e-01
	2.871399902138542e-01
	-2.871399902138542e-05

 26	1.928000000000001e-05
	6.056953600582962e-01
	3.028476800291481e-01
	-3.028476800291481e-05

 27	2.028000000000001e-05
	6.371106799091485e-01
	3.185553399545742e-01
	-3.185553399545742e-05

 28	2.128000000000001e-05
	6.685259368796976e-01
	3.342629684398488e-01
	-3.342629684398488e-05

 29	2.228000000000001e-05
	6.999411278693822e-01
	3.499705639346912e-01
	-3.499705639346911e-05

 30	2.328000000000001e-05
	7.313562497776469e-01
	3.656781248888235e-01
	-3.656781248888235e-05

 31	2.428000000000001e-05
	7.627712995039435e-01
	3.813856497519718e-01
	-3.813856497519718e-05

 32	2.528000000000001e-05
	7.941862739477310e-01
	3.970931369738655e-01
	-3.970931369738655e-05

 33	2.628000000000001e-05
	8.256011700084757e-01
	4.128005850042378e-01
	-4.128005850042378e-05

 34	2.728000000000001e-05
	8.570159845856518e-01
	4.285079922928259e-01
	-4.285079922928259e-05

 35	2.828000000000001e-05
	8.884307145787411e-01
	4.442153572893706e-01
	-4.442153572893706e-05

 36	2.928000000000001e-05
	9.198453568872342e-01
	4.599226784436172e-01
	-4.599226784436172e-05

 37	3.028000000000001e-05
	9.512599084106304e-01
	4.756299542053152e-01
	-4.756299542053151e-05

 38	3.128000000000001e-05
	9.826743660484374e-01
	4.913371830242187e-01
	-4.913371830242187e-05

 39	3.228000000000001e-05
	1.014088726700173e+00
	5.070443633500863e-01
	-5.070443633500863e-05

 40	3.328000000000001e-05
	1.045502987265363e+00
	5.227514936326816e-01
	-5.227514936326816e-05

 41	3.428000000000000e-05
	1.076917144643546e+00
	5.384585723217729e-01
	-5.384585723217729e-05

 42	3.528000000000000e-05
	1.108331195734267e+00
	5.541655978671336e-01
	-5.541655978671335e-05

 43	3.628000000000000e-05
	1.139745137437085e+00
	5.698725687185425e-01
	-5.698725687185425e-05

 44	3.728000000000000e-05
	1.171158966651568e+00
	5.855794833257838e-01
	-5.855794833257838e-05

 45	3.827999999999999e-05
	1.202572680277294e+00
	6.012863401386471e-01
	-6.012863401386471e-05

 46	3.927999999999999e-05
	1.233986275213856e+00
	6.169931376069280e-01
	-6.169931376069279e-05

 47	4.027999999999999e-05
	1.265399748360854e+00
	6.326998741804273e-01
	-6.326998741804271e-05

 48	4.127999999999998e-05
	1.296813096617905e+00
	6.484065483089525e-01
	-6.484065483089525e-05

 49	4.227999999999998e-05
	1.328226316884634e+00
	6.641131584423169e-01
	-6.641131584423169e-05

 50	4.327999999999998e-05
	1.359639406060681e+00
	6.798197030303404e-01
	-6.798197030303404e-05

 51	4.427999999999998e-05
	1.391052361045699e+00
	6.955261805228493e-01
	-6.955261805228493e-05

 52	4.527999999999997e-05
	1.422465178739352e+00
	7.112325893696760e-01
	-7.112325893696760e-05

 53	4.627999999999997e-05
	1.453877856041321e+00
	7.269389280206606e-01
	-7.269389280206605e-05

 54	4.727999999999997e-05
	1.485290389851298e+00
	7.426451949256493e-01
	-7.426451949256491e-05

 55	4.827999999999996e-05
	1.516702777068991e+00
	7.583513885344956e-01
	-7.583513885344954e-05

 56	4.927999999999996e-05
	1.548115014594121e+00
	7.740575072970606e-01
	-7.740575072970606e-05

 57	5.027999999999996e-05
	1.579527099326425e+00
	7.897635496632123e-01
	-7.897635496632123e-05

 58	5.127999999999996e-05
	1.610939028165653e+00
	8.054695140828264e-01
	-8.054695140828264e-05

 59	5.227999999999995e-05
	1.642350798011574e+00
	8.211753990057871e-01
	-8.211753990057871e-05

 60	5.327999999999995e-05
	1.673762405763970e+00
	8.368812028819849e-01
	-8.368812028819849e-05

 61	5.427999999999995e-05
	1.705173848322638e+00
	8.525869241613191e-01
	-8.525869241613191e-05

 62	5.527999999999995e-05
	1.736585122587396e+00
	8.682925612936978e-01
	-8.682925612936978e-05

 63	5.627999999999994e-05
	1.767996225458072e+00
	8.839981127290361e-01
	-8.839981127290361e-05

 64	5.727999999999994e-05
	1.799407153834517e+00
	8.997035769172586e-01
	-8.997035769172586e-05

 65	5.827999999999994e-05
	1.830817904616596e+00
	9.154089523082980e-01
	-9.154089523082978e-05

 66	5.927999999999993e-05
	1.862228474704191e+00
	9.311142373520956e-01
	-9.311142373520957e-05

 67	6.027999999999993e-05
	1.893638860997205e+00
	9.468194304986027e-01
	-9.468194304986027e-05

 68	6.127999999999993e-05
	1.925049060395556e+00
	9.625245301977781e-01
	-9.625245301977780e-05

 69	6.227999999999993e-05
	1.956459069799182e+00
	9.782295348995910e-01
	-9.782295348995908e-05

 70	6.327999999999992e-05
	1.987868886108039e+00
	9.939344430540193e-01
	-9.939344430540193e-05

 71	6.427999999999992e-05
	2.019278506222102e+00
	1.009639253111051e+00
	-1.009639253111051e-04

 72	6.527999999999992e-05
	2.050687927041367e+00
	1.025343963520683e+00
	-1.025343963520683e-04

 73	6.627999999999991e-05
	2.082097145465847e+00
	1.041048572732923e+00
	-1.041048572732923e-04

 74	6.727999999999991e-05
	2.113506158395578e+00
	1.056753079197789e+00
	-1.056753079197789e-04

 75	6.827999999999991e-05
	2.144914962730613e+00
	1.072457481365306e+00
	-1.072457481365307e-04

 76	6.927999999999991e-05
	2.176323555371029e+00
	1.088161777685514e+00
	-1.088161777685514e-04

 77	7.027999999999990e-05
	2.207731933216921e+00
	1.103865966608460e+00
	-1.103865966608460e-04

 78	7.127999999999990e-05
	2.239140093168407e+00
	1.119570046584203e+00
	-1.119570046584203e-04

 79	7.227999999999990e-05
	2.270548032125625e+00
	1.135274016062813e+00
	-1.135274016062813e-04

 80	7.327999999999989e-05
	2.301955746988737e+00
	1.150977873494368e+00
	-1.150977873494368e-04

 81	7.427999999999989e-05
	2.333363234657925e+00
	1.166681617328962e+00
	-1.166681617328963e-04

 82	7.527999999999989e-05
	2.364770492033394e+00
	1.182385246016697e+00
	-1.182385246016697e-04

 83	7.627999999999989e-05
	2.396177516015372e+00
	1.198088758007686e+00
	-1.198088758007686e-04

 84	7.727999999999988e-05
	2.427584303504112e+00
	1.213792151752056e+00
	-1.213792151752056e-04

 85	7.827999999999988e-05
	2.458990851399885e+00
	1.229495425699943e+00
	-1.229495425699943e-04

 86	7.927999999999988e-05
	2.490397156602992e+00
	1.245198578301496e+00
	-1.245198578301496e-04

 87	8.027999999999988e-05
	2.521803216013753e+00
	1.260901608006877e+00
	-1.260901608006877e-04

 88	8.127999999999987e-05
	2.553209026532515e+00
	1.276604513266257e+00
	-1.276604513266257e-04

 89	8.227999999999987e-05
	2.584614585059648e+00
	1.292307292529824e+00
	-1.292307292529824e-04

 90	8.327999999999987e-05
	2.616019888495549e+00
	1.308009944247774e+00
	-1.308009944247774e-04

 91	8.427999999999986e-05
	2.647424933740638e+00
	1.323712466870319e+00
	-1.323712466870319e-04

 92	8.527999999999986e-05
	2.678829717695362e+00
	1.339414858847681e+00
	-1.339414858847681e-04

 93	8.627999999999986e-05
	2.710234237260191e+00
	1.355117118630096e+00
	-1.355117118630096e-04

 94	8.727999999999986e-05
	2.741638489335625e+00
	1.370819244667813e+00
	-1.370819244667813e-04

 95	8.827999999999985e-05
	2.773042470822189e+00
	1.386521235411095e+00
	-1.386521235411095e-04

 96	8.927999999999985e-05
	2.804446178620433e+00
	1.402223089310217e+00
	-1.402223089310217e-04

 97	9.027999999999985e-05
	2.835849609630936e+00
	1.417924804815468e+00
	-1.417924804815468e-04

 98	9.127999999999984e-05
	2.867252760754304e+00
	1.433626380377152e+00
	-1.433626380377152e-04

 99	9.227999999999984e-05
	2.898655628891169e+00
	1.449327814445584e+00
	-1.449327814445584e-04

 100	9.327999999999984e-05
	2.930058210942192e+00
	1.465029105471096e+00
	-1.465029105471096e-04

 101	9.427999999999984e-05
	2.961460503808064e+00
	1.480730251904032e+00
	-1.480730251904032e-04

 102	9.527999999999983e-05
	2.992862504389502e+00
	1.496431252194751e+00
	-1.496431252194751e-04

 103	9.627999999999983e-05
	3.024264209587254e+00
	1.512132104793627e+00
	-1.512132104793627e-04

 104	9.727999999999983e-05
	3.055665616302094e+00
	1.527832808151047e+00
	-1.527832808151047e-04

 105	9.827999999999982e-05
	3.087066721434828e+00
	1.543533360717414e+00
	-1.543533360717414e-04

 106	9.927999999999982e-05
	3.118467521886293e+00
	1.559233760943146e+00
	-1.559233760943146e-04

 107	1.002799999999998e-04
	3.149868014557351e+00
	1.574934007278676e+00
	-1.574934007278676e-04

 108	1.012799999999998e-04
	3.181268196348900e+00
	1.590634098174450e+00
	-1.590634098174450e-04

 109	1.022799999999998e-04
	3.212668064161866e+00
	1.606334032080933e+00
	-1.606334032080933e-04

 110	1.032799999999998e-04
	3.244067614897206e+00
	1.622033807448603e+00
	-1.622033807448603e-04

 111	1.042799999999998e-04
	3.275466845455908e+00
	1.637733422727954e+00
	-1.637733422727954e-04

 112	1.052799999999998e-04
	3.306865752738993e+00
	1.653432876369497e+00
	-1.653432876369497e-04

 113	1.062799999999998e-04
	3.338264333647512e+00
	1.669132166823756e+00
	-1.669132166823756e-04

 114	1.072799999999998e-04
	3.369662585082552e+00
	1.684831292541276e+00
	-1.684831292541276e-04

 115	1.082799999999998e-04
	3.401060503945227e+00
	1.700530251972613e+00
	-1.700530251972613e-04

 116	1.092799999999998e-04
	3.432458087136687e+00
	1.716229043568343e+00
	-1.716229043568343e-04

 117	1.102799999999998e-04
	3.463855331558115e+00
	1.731927665779058e+00
	-1.731927665779058e-04

 118	1.112799999999998e-04
	3.495252234110729e+00
	1.747626117055364e+00
	-1.747626117055364e-04

 119	1.122799999999998e-04
	3.526648791695777e+00
	1.763324395847888e+00
	-1.763324395847888e-04

 120	1.132799999999998e-04
	3.558045001214543e+00
	1.779022500607272e+00
	-1.779022500607272e-04

 121	1.142799999999998e-04
	3.589440859568346e+00
	1.794720429784173e+00
	-1.794720429784173e-04

 122	1.152799999999998e-04
	3.620836363658539e+00
	1.810418181829270e+00
	-1.810418181829270e-04

 123	1.162799999999998e-04
	3.652231510386510e+00
	1.826115755193255e+00
	-1.826115755193255e-04

 124	1.172799999999998e-04
	3.683626296653682e+00
	1.841813148326841e+00
	-1.841813148326841e-04

 125	1.182799999999998e-04
	3.715020719361515e+00
	1.857510359680757e+00
	-1.857510359680757e-04

 126	1.192799999999998e-04
	3.746414775411500e+00
	1.873207387705750e+00
	-1.873207387705750e-04

 127	1.202799999999998e-04
	3.777808461705173e+00
	1.888904230852586e+00
	-1.888904230852586e-04

 128	1.212799999999998e-04
	3.809201775144098e+00
	1.904600887572049e+00
	-1.904600887572049e-04

 129	1.222799999999998e-04
	3.840594712629879e+00
	1.920297356314940e+00
	-1.920297356314940e-04

 130	1.232799999999998e-04
	3.871987271064160e+00
	1.935993635532080e+00
	-1.935993635532080e-04

 131	1.242799999999998e-04
	3.903379447348617e+00
	1.951689723674309e+00
	-1.951689723674308e-04

 132	1.252799999999997e-04
	3.934771238384967e+00
	1.967385619192484e+00
	-1.967385619192484e-04

 133	1.262799999999997e-04
	3.966162641074965e+00
	1.983081320537483e+00
	-1.983081320537483e-04

 134	1.272799999999997e-04
	3.997553652320405e+00
	1.998776826160202e+00
	-1.998776826160202e-04

 135	1.282799999999997e-04
	4.028944269023117e+00
	2.014472134511558e+00
	-2.014472134511558e-04

 136	1.292799999999997e-04
	4.060334488084970e+00
	2.030167244042485e+00
	-2.030167244042485e-04

 137	1.302799999999997e-04
	4.091724306407875e+00
	2.045862153203938e+00
	-2.045862153203938e-04

 138	1.312799999999997e-04
	4.123113720893782e+00
	2.061556860446891e+00
	-2.061556860446891e-04

 139	1.322799999999997e-04
	4.154502728444679e+00
	2.077251364222339e+00
	-2.077251364222339e-04

 140	1.332799999999997e-04
	4.185891325962595e+00
	2.092945662981297e+00
	-2.092945662981297e-04

 141	1.342799999999997e-04
	4.217279510349600e+00
	2.108639755174800e+00
	-2.108639755174800e-04

 142	1.352799999999997e-04
	4.248667278507804e+00
	2.124333639253902e+00
	-2.124333639253902e-04

 143	1.362799999999997e-04
	4.280054627339359e+00
	2.140027313669679e+00
	-2.140027313669680e-04

 144	1.372799999999997e-04
	4.311441553746457e+00
	2.155720776873228e+00
	-2.155720776873229e-04

 145	1.382799999999997e-04
	4.342828054631333e+00
	2.171414027315667e+00
	-2.171414027315667e-04

 146	1.392799999999997e-04
	4.374214126896265e+00
	2.187107063448133e+00
	-2.187107063448133e-04

 147	1.402799999999997e-04
	4.405599767443571e+00
	2.202799883721785e+00
	-2.202799883721785e-04

 148	1.412799999999997e-04
	4.436984973175610e+00
	2.218492486587805e+00
	-2.218492486587805e-04

 149	1.422799999999997e-04
	4.468369740994790e+00
	2.234184870497395e+00
	-2.234184870497395e-04

 150	1.432799999999997e-04
	4.499754067803555e+00
	2.249877033901778e+00
	-2.249877033901778e-04

 151	1.442799999999997e-04
	4.531137950504401e+00
	2.265568975252200e+00
	-2.265568975252200e-04

 152	1.452799999999997e-04
	4.562521385999858e+00
	2.281260692999929e+00
	-2.281260692999929e-04

 153	1.462799999999997e-04
	4.593904371192507e+00
	2.296952185596254e+00
	-2.296952185596254e-04

 154	1.472799999999997e-04
	4.625286902984973e+00
	2.312643451492487e+00
	-2.312643451492487e-04

 155	1.482799999999997e-04
	4.656668978279923e+00
	2.328334489139961e+00
	-2.328334489139961e-04

 156	1.492799999999997e-04
	4.688050593980070e+00
	2.344025296990035e+00
	-2.344025296990035e-04

 157	1.502799999999997e-04
	4.719431746988173e+00
	2.359715873494086e+00
	-2.359715873494087e-04

 158	1.512799999999997e-04
	4.750812434207036e+00
	2.375406217103518e+00
	-2.375406217103518e-04

 159	1.522799999999997e-04
	4.782192652539511e+00
	2.391096326269755e+00
	-2.391096326269755e-04

 160	1.532799999999997e-04
	4.813572398888492e+00
	2.406786199444246e+00
	-2.406786199444246e-04

 161	1.542799999999997e-04
	4.844951670156924e+00
	2.422475835078462e+00
	-2.422475835078462e-04

 162	1.552799999999997e-04
	4.876330463247798e+00
	2.438165231623899e+00
	-2.438165231623899e-04

 163	1.562799999999997e-04
	4.907708775064147e+00
	2.453854387532074e+00
	-2.453854387532074e-04

 164	1.572799999999997e-04
	4.939086602509060e+00
	2.469543301254530e+00
	-2.469543301254530e-04

 165	1.582799999999997e-04
	4.970463942485670e+00
	2.485231971242835e+00
	-2.485231971242835e-04

 166	1.592799999999997e-04
	5.001840791897155e+00
	2.500920395948578e+00
	-2.500920395948578e-04

 167	1.602799999999997e-04
	5.033217147646744e+00
	2.516608573823372e+00
	-2.516608573823372e-04

 168	1.612799999999996e-04
	5.064593006637717e+00
	2.532296503318859e+00
	-2.532296503318859e-04

 169	1.622799999999996e-04
	5.095968365773400e+00
	2.547984182886700e+00
	-2.547984182886700e-04

 170	1.632799999999996e-04
	5.127343221957168e+00
	2.563671610978584e+00
	-2.563671610978584e-04

 171	1.642799999999996e-04
	5.158717572092448e+00
	2.579358786046224e+00
	-2.579358786046224e-04

 172	1.652799999999996e-04
	5.190091413082717e+00
	2.595045706541359e+00
	-2.595045706541358e-04

 173	1.662799999999996e-04
	5.221464741831499e+00
	2.610732370915750e+00
	-2.610732370915749e-04

 174	1.672799999999996e-04
	5.252837555242371e+00
	2.626418777621186e+00
	-2.626418777621185e-04

 175	1.682799999999996e-04
	5.284209850218962e+00
	2.642104925109481e+00
	-2.642104925109481e-04

 176	1.692799999999996e-04
	5.315581623664948e+00
	2.657790811832474e+00
	-2.657790811832474e-04

 177	1.702799999999996e-04
	5.346952872484061e+00
	2.673476436242030e+00
	-2.673476436242031e-04

 178	1.712799999999996e-04
	5.378323593580082e+00
	2.689161796790041e+00
	-2.689161796790041e-04

 179	1.722799999999996e-04
	5.409693783856845e+00
	2.704846891928423e+00
	-2.704846891928423e-04

 180	1.732799999999996e-04
	5.441063440218237e+00
	2.720531720109118e+00
	-2.720531720109118e-04

 181	1.742799999999996e-04
	5.472432559568196e+00
	2.736216279784098e+00
	-2.736216279784098e-04

 182	1.752799999999996e-04
	5.503801138810715e+00
	2.751900569405358e+00
	-2.751900569405358e-04

 183	1.762799999999996e-04
	5.535169174849839e+00
	2.767584587424920e+00
	-2.767584587424920e-04

 184	1.772799999999996e-04
	5.566536664589667e+00
	2.783268332294834e+00
	-2.783268332294834e-04

 185	1.782799999999996e-04
	5.597903604934353e+00
	2.798951802467177e+00
	-2.798951802467176e-04

 186	1.792799999999996e-04
	5.629269992788102e+00
	2.814634996394051e+00
	-2.814634996394051e-04

 187	1.802799999999996e-04
	5.660635825055178e+00
	2.830317912527589e+00
	-2.830317912527589e-04

 188	1.812799999999996e-04
	5.692001098639894e+00
	2.846000549319947e+00
	-2.846000549319947e-04

 189	1.822799999999996e-04
	5.723365810446625e+00
	2.861682905223312e+00
	-2.861682905223312e-04

 190	1.832799999999996e-04
	5.754729957379796e+00
	2.877364978689898e+00
	-2.877364978689898e-04

 191	1.842799999999996e-04
	5.786093536343890e+00
	2.893046768171945e+00
	-2.893046768171945e-04

 192	1.852799999999996e-04
	5.817456544243448e+00
	2.908728272121724e+00
	-2.908728272121724e-04

 193	1.862799999999996e-04
	5.848818977983063e+00
	2.924409488991532e+00
	-2.924409488991531e-04

 194	1.872799999999996e-04
	5.880180834467386e+00
	2.940090417233693e+00
	-2.940090417233693e-04

 195	1.882799999999996e-04
	5.911542110601129e+00
	2.955771055300565e+00
	-2.955771055300564e-04

 196	1.892799999999996e-04
	5.942902803289057e+00
	2.971451401644529e+00
	-2.971451401644528e-04

 197	1.902799999999996e-04
	5.974262909435992e+00
	2.987131454717996e+00
	-2.987131454717996e-04

 198	1.912799999999996e-04
	6.005622425946817e+00
	3.002811212973409e+00
	-3.002811212973408e-04

 199	1.922799999999996e-04
	6.036981349726473e+00
	3.018490674863236e+00
	-3.018490674863236e-04

 200	1.932799999999996e-04
	6.068339677679954e+00
	3.034169838839977e+00
	-3.034169838839977e-04

 201	1.942799999999996e-04
	6.099697406712322e+00
	3.049848703356161e+00
	-3.049848703356161e-04

 202	1.952799999999996e-04
	6.131054533728690e+00
	3.065527266864345e+00
	-3.065527266864345e-04

 203	1.962799999999996e-04
	6.162411055634237e+00
	3.081205527817119e+00
	-3.081205527817118e-04

 204	1.972799999999995e-04
	6.193766969334194e+00
	3.096883484667097e+00
	-3.096883484667097e-04

 205	1.982799999999995e-04
	6.225122271733860e+00
	3.112561135866931e+00
	-3.112561135866930e-04

 206	1.992799999999995e-04
	6.256476959738588e+00
	3.128238479869294e+00
	-3.128238479869294e-04

 207	2.002799999999995e-04
	6.287831030253798e+00
	3.143915515126899e+00
	-3.143915515126899e-04

 208	2.012799999999995e-04
	6.319184480184964e+00
	3.159592240092482e+00
	-3.159592240092482e-04

 209	2.022799999999995e-04
	6.350537306437626e+00
	3.175268653218813e+00
	-3.175268653218813e-04

 210	2.032799999999995e-04
	6.381889505917382e+00
	3.190944752958691e+00
	-3.190944752958691e-04

 211	2.042799999999995e-04
	6.413241075529898e+00
	3.206620537764949e+00
	-3.206620537764949e-04

 212	2.052799999999995e-04
	6.444592012180893e+00
	3.222296006090446e+00
	-3.222296006090446e-04

 213	2.062799999999995e-04
	6.475942312776158e+00
	3.237971156388079e+00
	-3.237971156388079e-04

 214	2.072799999999995e-04
	6.507291974221539e+00
	3.253645987110770e+00
	-3.253645987110769e-04

 215	2.082799999999995e-04
	6.538640993422952e+00
	3.269320496711476e+00
	-3.269320496711476e-04

 216	2.092799999999995e-04
	6.569989367286371e+00
	3.284994683643186e+00
	-3.284994683643186e-04

 217	2.102799999999995e-04
	6.601337092717835e+00
	3.300668546358918e+00
	-3.300668546358918e-04

 218	2.112799999999995e-04
	6.632684166623450e+00
	3.316342083311725e+00
	-3.316342083311725e-04

 219	2.122799999999995e-04
	6.664030585909379e+00
	3.332015292954690e+00
	-3.332015292954689e-04

 220	2.132799999999995e-04
	6.695376347481859e+00
	3.347688173740929e+00
	-3.347688173740929e-04

 221	2.142799999999995e-04
	6.726721448247186e+00
	3.363360724123593e+00
	-3.363360724123593e-04

 222	2.152799999999995e-04
	6.758065885111722e+00
	3.379032942555861e+00
	-3.379032942555861e-04

 223	2.162799999999995e-04
	6.789409654981895e+00
	3.394704827490948e+00
	-3.394704827490947e-04

 224	2.172799999999995e-04
	6.820752754764200e+00
	3.410376377382101e+00
	-3.410376377382100e-04

 225	2.182799999999995e-04
	6.852095181365195e+00
	3.426047590682598e+00
	-3.426047590682597e-04

 226	2.192799999999995e-04
	6.883436931691509e+00
	3.441718465845755e+00
	-3.441718465845754e-04

 227	2.202799999999995e-04
	6.914778002649835e+00
	3.457389001324918e+00
	-3.457389001324918e-04

 228	2.212799999999995e-04
	6.946118391146931e+00
	3.473059195573466e+00
	-3.473059195573466e-04

 229	2.222799999999995e-04
	6.977458094089630e+00
	3.488729047044815e+00
	-3.488729047044815e-04

 230	2.232799999999995e-04
	7.008797108384821e+00
	3.504398554192411e+00
	-3.504398554192410e-04

 231	2.242799999999995e-04
	7.040135430939467e+00
	3.520067715469734e+00
	-3.520067715469734e-04

 232	2.252799999999995e-04
	7.071473058660606e+00
	3.535736529330303e+00
	-3.535736529330303e-04

 233	2.262799999999995e-04
	7.102809988455333e+00
	3.551404994227667e+00
	-3.551404994227666e-04

 234	2.272799999999995e-04
	7.134146217230819e+00
	3.567073108615410e+00
	-3.567073108615410e-04

 235	2.282799999999995e-04
	7.165481741894301e+00
	3.582740870947151e+00
	-3.582740870947151e-04

 236	2.292799999999995e-04
	7.196816559353089e+00
	3.598408279676545e+00
	-3.598408279676545e-04

 237	2.302799999999995e-04
	7.228150666514559e+00
	3.614075333257279e+00
	-3.614075333257279e-04

 238	2.312799999999995e-04
	7.259484060286157e+00
	3.629742030143079e+00
	-3.629742030143079e-04

 239	2.322799999999994e-04
	7.290816737575404e+00
	3.645408368787702e+00
	-3.645408368787702e-04

 240	2.332799999999994e-04
	7.322148695289886e+00
	3.661074347644943e+00
	-3.661074347644943e-04

 241	2.342799999999994e-04
	7.353479930337264e+00
	3.676739965168632e+00
	-3.676739965168632e-04

 242	2.352799999999994e-04
	7.384810439625271e+00
	3.692405219812636e+00
	-3.692405219812636e-04

 243	2.362799999999994e-04
	7.416140220061706e+00
	3.708070110030854e+00
	-3.708070110030853e-04

 244	2.372799999999994e-04
	7.447469268554446e+00
	3.723734634277223e+00
	-3.723734634277223e-04

 245	2.382799999999994e-04
	7.478797582011437e+00
	3.739398791005719e+00
	-3.739398791005719e-04

 246	2.392799999999994e-04
	7.510125157340700e+00
	3.755062578670350e+00
	-3.755062578670350e-04

 247	2.402799999999994e-04
	7.541451991450325e+00
	3.770725995725162e+00
	-3.770725995725163e-04

 248	2.412799999999994e-04
	7.572778081248479e+00
	3.786389040624239e+00
	-3.786389040624239e-04

 249	2.422799999999994e-04
	7.604103423643399e+00
	3.802051711821699e+00
	-3.802051711821699e-04

 250	2.432799999999994e-04
	7.635428015543402e+00
	3.817714007771701e+00
	-3.817714007771701e-04

 251	2.442799999999994e-04
	7.666751853856868e+00
	3.833375926928434e+00
	-3.833375926928434e-04

 252	2.452799999999995e-04
	7.698074935492266e+00
	3.849037467746133e+00
	-3.849037467746133e-04

 253	2.462799999999995e-04
	7.729397257358126e+00
	3.864698628679063e+00
	-3.864698628679063e-04

 254	2.472799999999995e-04
	7.760718816363060e+00
	3.880359408181530e+00
	-3.880359408181530e-04

 255	2.482799999999995e-04
	7.792039609415756e+00
	3.896019804707878e+00
	-3.896019804707878e-04

 256	2.492799999999996e-04
	7.823359633424973e+00
	3.911679816712487e+00
	-3.911679816712486e-04

 257	2.502799999999996e-04
	7.854678885299549e+00
	3.927339442649775e+00
	-3.927339442649775e-04

 258	2.512799999999996e-04
	7.885997361948399e+00
	3.942998680974200e+00
	-3.942998680974200e-04

 259	2.522799999999996e-04
	7.917315060280512e+00
	3.958657530140257e+00
	-3.958657530140257e-04

 260	2.532799999999997e-04
	7.948631977204958e+00
	3.974315988602479e+00
	-3.974315988602479e-04

 261	2.542799999999997e-04
	7.979948109630877e+00
	3.989974054815439e+00
	-3.989974054815439e-04

 262	2.552799999999997e-04
	8.011263454467493e+00
	4.005631727233746e+00
	-4.005631727233747e-04

 263	2.562799999999997e-04
	8.042578008624107e+00
	4.021289004312053e+00
	-4.021289004312054e-04

 264	2.572799999999998e-04
	8.073891769010091e+00
	4.036945884505045e+00
	-4.036945884505045e-04

 265	2.582799999999998e-04
	8.105204732534906e+00
	4.052602366267453e+00
	-4.052602366267453e-04

 266	2.592799999999998e-04
	8.136516896108088e+00
	4.068258448054044e+00
	-4.068258448054044e-04

 267	2.602799999999998e-04
	8.167828256639240e+00
	4.083914128319620e+00
	-4.083914128319620e-04

 268	2.612799999999999e-04
	8.199138811038065e+00
	4.099569405519032e+00
	-4.099569405519032e-04

 269	2.622799999999999e-04
	8.230448556214332e+00
	4.115224278107166e+00
	-4.115224278107166e-04

 270	2.632799999999999e-04
	8.261757489077892e+00
	4.130878744538946e+00
	-4.130878744538946e-04

 271	2.642799999999999e-04
	8.293065606538679e+00
	4.146532803269340e+00
	-4.146532803269340e-04

 272	2.652800000000000e-04
	8.324372905506705e+00
	4.162186452753352e+00
	-4.162186452753353e-04

 273	2.662800000000000e-04
	8.355679382892060e+00
	4.177839691446030e+00
	-4.177839691446030e-04

 274	2.672800000000000e-04
	8.386985035604926e+00
	4.193492517802463e+00
	-4.193492517802464e-04

 275	2.682800000000000e-04
	8.418289860555552e+00
	4.209144930277776e+00
	-4.209144930277776e-04

 276	2.692800000000001e-04
	8.449593854654278e+00
	4.224796927327139e+00
	-4.224796927327139e-04

 277	2.702800000000001e-04
	8.480897014811523e+00
	4.240448507405762e+00
	-4.240448507405762e-04

 278	2.712800000000001e-04
	8.512199337937792e+00
	4.256099668968896e+00
	-4.256099668968896e-04

 279	2.722800000000001e-04
	8.543500820943668e+00
	4.271750410471834e+00
	-4.271750410471835e-04

 280	2.732800000000001e-04
	8.574801460739815e+00
	4.287400730369908e+00
	-4.287400730369908e-04

 281	2.742800000000002e-04
	8.606101254236991e+00
	4.303050627118496e+00
	-4.303050627118496e-04

 282	2.752800000000002e-04
	8.637400198346022e+00
	4.318700099173012e+00
	-4.318700099173011e-04

 283	2.762800000000002e-04
	8.668698289977831e+00
	4.334349144988916e+00
	-4.334349144988916e-04

 284	2.772800000000002e-04
	8.699995526043420e+00
	4.349997763021710e+00
	-4.349997763021710e-04

 285	2.782800000000003e-04
	8.731291903453874e+00
	4.365645951726937e+00
	-4.365645951726937e-04

 286	2.792800000000003e-04
	8.762587419120363e+00
	4.381293709560182e+00
	-4.381293709560182e-04

 287	2.802800000000003e-04
	8.793882069954147e+00
	4.396941034977074e+00
	-4.396941034977074e-04

 288	2.812800000000003e-04
	8.825175852866570e+00
	4.412587926433285e+00
	-4.412587926433285e-04

 289	2.822800000000004e-04
	8.856468764769051e+00
	4.428234382384526e+00
	-4.428234382384526e-04

 290	2.832800000000004e-04
	8.887760802573110e+00
	4.443880401286555e+00
	-4.443880401286555e-04

 291	2.842800000000004e-04
	8.919051963190345e+00
	4.459525981595172e+00
	-4.459525981595173e-04

 292	2.852800000000004e-04
	8.950342243532440e+00
	4.475171121766220e+00
	-4.475171121766220e-04

 293	2.862800000000005e-04
	8.981631640511173e+00
	4.490815820255587e+00
	-4.490815820255587e-04

 294	2.872800000000005e-04
	9.012920151038402e+00
	4.506460075519201e+00
	-4.506460075519202e-04

 295	2.882800000000005e-04
	9.044207772026072e+00
	4.522103886013036e+00
	-4.522103886013036e-04

 296	2.892800000000005e-04
	9.075494500386224e+00
	4.537747250193112e+00
	-4.537747250193112e-04

 297	2.902800000000006e-04
	9.106780333030978e+00
	4.553390166515490e+00
	-4.553390166515489e-04

 298	2.912800000000006e-04
	9.138065266872545e+00
	4.569032633436272e+00
	-4.569032633436273e-04

 299	2.922800000000006e-04
	9.169349298823226e+00
	4.584674649411613e+00
	-4.584674649411613e-04

 300	2.932800000000006e-04
	9.200632425795416e+00
	4.600316212897708e+00
	-4.600316212897708e-04

 301	2.942800000000007e-04
	9.231914644701590e+00
	4.615957322350795e+00
	-4.615957322350795e-04

 302	2.952800000000007e-04
	9.263195952454318e+00
	4.631597976227159e+00
	-4.631597976227159e-04

 303	2.962800000000007e-04
	9.294476345966258e+00
	4.647238172983129e+00
	-4.647238172983129e-04

 304	2.972800000000007e-04
	9.325755822150157e+00